/*--------------------------------*- C++ -*----------------------------------*\
| =========                 |                                                 |
| \\      /  F ield         | OpenFOAM: The Open Source CFD Toolbox           |
|  \\    /   O peration     | Version:  2.0.x                                 |
|   \\  /    A nd           | Web:      www.OpenFOAM.org                      |
|    \\/     M anipulation  |                                                 |
\*---------------------------------------------------------------------------*/
FoamFile
{
    version     2.0;
    format      ascii;
    class       volScalarField;
    location    "0";
    object      nut;
}
// * * * * * * * * * * * * * * * * * * * * * * * * * * * * * * * * * * * * * //

dimensions      [0 2 -1 0 0 0 0];

internalField   nonuniform List<scalar> 
12225
(
3.09428e-05
3.71942e-05
4.09465e-05
4.31439e-05
4.43806e-05
4.5021e-05
4.52917e-05
4.53354e-05
4.52415e-05
4.50667e-05
4.48465e-05
4.46032e-05
4.43506e-05
4.40974e-05
4.38487e-05
4.36072e-05
4.33707e-05
4.31593e-05
0.000116606
6.93602e-05
5.15967e-05
4.24064e-05
3.71456e-05
3.39129e-05
3.18209e-05
3.04223e-05
2.9473e-05
2.88307e-05
2.84071e-05
2.8145e-05
2.80057e-05
2.79619e-05
2.79935e-05
2.80847e-05
2.82216e-05
2.83624e-05
0.000365086
0.000223197
0.000162399
0.000127844
0.000105957
9.115e-05
8.05958e-05
7.27566e-05
6.67429e-05
6.20095e-05
5.82061e-05
5.50983e-05
5.25236e-05
5.03658e-05
4.85376e-05
4.69668e-05
4.55802e-05
4.4342e-05
0.000644588
0.000479017
0.000378598
0.000313304
0.000268165
0.000235553
0.000211111
0.000192222
0.000177248
0.00016512
0.000155115
0.00014673
0.000139603
0.000133469
0.000128125
0.000123409
0.000119193
0.000115455
0.000789258
0.00069675
0.000611813
0.000541879
0.000485829
0.000441011
0.000404881
0.000375403
0.000351043
0.000330664
0.000313417
0.000298664
0.000285918
0.000274803
0.000265024
0.000256347
0.00024859
0.000241718
0.000836142
0.000802017
0.000758836
0.000713761
0.00067076
0.000631583
0.000596693
0.000565934
0.000538908
0.000515155
0.000494225
0.000475719
0.000459286
0.000444626
0.000431487
0.000419655
0.000408963
0.000399397
0.000848365
0.000838505
0.000822801
0.000802816
0.00078036
0.00075696
0.000733698
0.00071125
0.000689994
0.000670106
0.000651637
0.000634561
0.000618809
0.000604291
0.00059091
0.000578569
0.000567184
0.000556815
0.000850836
0.000847522
0.000841595
0.000833058
0.000822324
0.000809981
0.000796622
0.000782753
0.000768769
0.000754959
0.000741519
0.000728577
0.000716208
0.000704448
0.000693309
0.000682784
0.000672868
0.000663687
0.000851476
0.000850223
0.000847993
0.000844558
0.000839873
0.00083404
0.000827244
0.000819707
0.000811649
0.000803267
0.000794727
0.000786162
0.000777676
0.000769346
0.000761228
0.000753359
0.000745776
0.000738615
0.000851641
0.000851029
0.000850147
0.000848857
0.000847066
0.000844729
0.00084185
0.00083847
0.000834651
0.00083047
0.000826004
0.000821328
0.000816509
0.000811608
0.000806673
0.000801749
0.000796875
0.000792165
0.000851673
0.000851219
0.000850721
0.000850132
0.000849405
0.000848501
0.000847394
0.00084607
0.000844531
0.000842785
0.000840851
0.000838749
0.000836503
0.00083414
0.000831683
0.000829157
0.000826586
0.000824041
0.000851675
0.000851249
0.000850835
0.00085042
0.000849989
0.000849528
0.000849021
0.000848459
0.000847831
0.000847132
0.000846361
0.000845518
0.000844605
0.000843629
0.000842593
0.000841506
0.000840378
0.000839243
0.000851672
0.000851248
0.000850846
0.000850462
0.000850092
0.000849731
0.000849375
0.000849018
0.000848658
0.000848288
0.000847908
0.000847513
0.000847103
0.000846677
0.000846234
0.000845775
0.000845303
0.000844835
0.000851669
0.000851244
0.000850841
0.000850459
0.000850097
0.000849751
0.000849421
0.000849105
0.0008488
0.000848505
0.000848218
0.000847938
0.000847664
0.000847394
0.000847128
0.000846865
0.000846606
0.000846364
0.000851667
0.00085124
0.000850836
0.000850452
0.000850089
0.000849744
0.000849417
0.000849105
0.000848807
0.000848524
0.000848252
0.000847993
0.000847744
0.000847506
0.000847277
0.000847057
0.000846848
0.00084666
0.000851665
0.000851237
0.000850831
0.000850447
0.000850083
0.000849737
0.000849408
0.000849096
0.000848799
0.000848516
0.000848246
0.000847989
0.000847744
0.00084751
0.000847286
0.000847073
0.000846872
0.000846694
0.000851664
0.000851235
0.000850829
0.000850443
0.000850078
0.000849732
0.000849402
0.00084909
0.000848792
0.000848509
0.000848239
0.000847983
0.000847738
0.000847505
0.000847282
0.000847071
0.000846871
0.000846694
0.000851664
0.000851234
0.000850828
0.000850442
0.000850077
0.00084973
0.0008494
0.000849088
0.00084879
0.000848507
0.000848238
0.000847982
0.000847738
0.000847505
0.000847283
0.000847072
0.000846874
0.000846698
0.000851664
0.000851235
0.000850828
0.000850443
0.000850078
0.000849731
0.000849402
0.00084909
0.000848793
0.00084851
0.000848242
0.000847985
0.000847742
0.000847509
0.000847287
0.000847076
0.000846877
0.000846701
0.000851664
0.000851236
0.00085083
0.000850445
0.00085008
0.000849734
0.000849406
0.000849093
0.000848795
0.00084851
0.000848238
0.000847978
0.000847729
0.000847489
0.000847259
0.000847037
0.000846826
0.000846636
0.000851665
0.000851237
0.000850832
0.000850447
0.00085008
0.000849729
0.000849391
0.000849063
0.000848744
0.000848431
0.000848122
0.000847816
0.000847512
0.000847207
0.000846903
0.000846598
0.000846295
0.000846004
0.000851666
0.000851237
0.000850824
0.000850419
0.000850013
0.000849598
0.000849164
0.000848703
0.00084821
0.000847681
0.000847112
0.000846505
0.000845859
0.000845177
0.000844461
0.000843715
0.000842945
0.000842171
0.00085166
0.000851195
0.000850682
0.000850078
0.000849343
0.000848444
0.000847361
0.000846085
0.000844618
0.00084297
0.000841157
0.000839198
0.000837116
0.000834933
0.00083267
0.000830349
0.000827991
0.00082564
0.00085157
0.000850738
0.000849409
0.000847427
0.000844713
0.000841266
0.000837143
0.000832434
0.000827247
0.000821694
0.000815879
0.000809898
0.000803833
0.000797751
0.00079171
0.000785754
0.000779921
0.000774284
0.000850707
0.000847141
0.000840919
0.000832123
0.000821182
0.000808664
0.000795137
0.000781086
0.000766896
0.00075285
0.000739149
0.000725928
0.000713271
0.000701225
0.000689808
0.000679022
0.00066886
0.000659359
0.000844115
0.000825238
0.000798571
0.000767815
0.000735791
0.000704346
0.000674518
0.000646792
0.000621325
0.00059809
0.000576969
0.000557799
0.000540406
0.000524615
0.000510264
0.000497203
0.000485302
0.000474486
0.000803431
0.000727193
0.0006528
0.000587901
0.000533142
0.000487427
0.000449243
0.000417174
0.000390048
0.000366931
0.000347085
0.000329929
0.000315001
0.000301932
0.000290426
0.000280248
0.000271204
0.000263159
0.000625881
0.00046618
0.000370328
0.000306454
0.000261116
0.000227662
0.000202193
0.000182294
0.000166417
0.000153526
0.000142903
0.000134038
0.000126556
0.000120182
0.000114705
0.000109966
0.000105844
0.000102261
0.000254188
0.000158478
0.000118189
9.4872e-05
7.9879e-05
6.9678e-05
6.24339e-05
5.71181e-05
5.31173e-05
5.00457e-05
4.76493e-05
4.57551e-05
4.42422e-05
4.30235e-05
4.20357e-05
4.12316e-05
4.05758e-05
4.00478e-05
3.69327e-05
4.20256e-05
4.57634e-05
4.86735e-05
5.10805e-05
5.30455e-05
5.46284e-05
5.58865e-05
5.68723e-05
5.76326e-05
5.82077e-05
5.86318e-05
5.89338e-05
5.91375e-05
5.92625e-05
5.9325e-05
5.93383e-05
5.93124e-05
9.20081e-06
2.46948e-05
2.69358e-05
2.85596e-05
3.04312e-05
3.26069e-05
3.56417e-05
3.89062e-05
4.21603e-05
4.53475e-05
4.84438e-05
5.14409e-05
5.43254e-05
5.71021e-05
5.97787e-05
6.23622e-05
6.48594e-05
6.7276e-05
6.96172e-05
7.18876e-05
7.40912e-05
7.62316e-05
7.83119e-05
8.0335e-05
8.23034e-05
8.42195e-05
8.60853e-05
8.79028e-05
8.96736e-05
9.13995e-05
9.30819e-05
9.47222e-05
9.63216e-05
9.78816e-05
9.94032e-05
0.000100888
0.000102336
0.000103749
0.000105129
0.000106476
0.000107791
0.000109075
0.00011033
0.000111556
0.000112755
0.000113927
0.000115075
0.000116199
0.0001173
0.00011838
0.000119441
0.000120483
0.000121508
0.000122518
0.000123514
0.000124498
0.000125472
0.000126437
0.000127396
0.00012835
0.0001293
0.00013025
0.0001312
0.000132152
0.000133109
0.000134072
0.000135042
0.000136021
0.00013701
0.000138011
0.000139024
0.00014005
0.00014109
0.000142144
0.000143212
0.000144294
0.00014539
0.0001465
0.000147622
0.000148757
0.000149905
0.000151067
0.000152245
0.000153438
0.000154676
0.000155898
0.000157096
0.000158263
0.000159387
0.000160458
0.000161463
0.000162388
0.000163218
0.000163937
0.000164527
0.000164971
0.000165251
0.000165347
0.000165244
0.000164924
0.000164375
0.000163585
0.000162548
0.000161261
0.000159726
0.000157949
0.000155943
0.000153724
0.000151312
0.000148731
0.000146008
0.000143168
0.000140239
0.000137248
0.000134216
0.000131166
0.000128143
0.000125109
0.000122266
0.000119365
0.000117034
0.000114855
0.000112764
0.00011075
0.000108811
0.000106944
0.000105147
0.000103419
0.000101757
0.00010016
9.86239e-05
9.71477e-05
9.57283e-05
9.43623e-05
9.30466e-05
9.17781e-05
9.05547e-05
8.93746e-05
8.82358e-05
8.7136e-05
8.60729e-05
8.50443e-05
8.40483e-05
8.30832e-05
8.21473e-05
8.1239e-05
8.0357e-05
7.95e-05
7.86666e-05
7.78556e-05
7.70662e-05
7.62972e-05
7.55475e-05
7.48163e-05
7.41031e-05
7.34069e-05
7.27271e-05
7.20634e-05
7.14148e-05
7.07808e-05
7.01614e-05
6.9556e-05
6.89639e-05
6.83849e-05
6.78186e-05
6.72644e-05
6.67218e-05
6.61904e-05
6.56694e-05
6.51577e-05
6.46542e-05
6.41573e-05
6.36644e-05
6.31721e-05
6.26751e-05
6.21648e-05
6.16394e-05
6.10961e-05
6.04991e-05
5.96908e-05
1.3325e-05
7.80061e-05
0.00013495
0.000164825
0.000178918
0.000187685
0.000196252
0.000206878
0.000219319
0.000232974
0.000247406
0.000262368
0.000277718
0.000293371
0.000309265
0.000325355
0.000341601
0.000357968
0.000374424
0.000390936
0.000407477
0.000424016
0.000440527
0.000456982
0.000473356
0.000489625
0.000505765
0.000521754
0.000537571
0.000553197
0.000568613
0.000583804
0.000598753
0.000613447
0.000627873
0.00064202
0.000655878
0.000669438
0.000682694
0.00069564
0.00070827
0.000720581
0.000732571
0.000744238
0.000755584
0.000766608
0.000777315
0.000787709
0.000797795
0.00080758
0.000817074
0.000826287
0.000835231
0.000843922
0.000852376
0.000860612
0.000868651
0.000876517
0.000884237
0.000891841
0.00089936
0.000906831
0.00091429
0.000921779
0.000929341
0.000937021
0.000944869
0.000952934
0.000961267
0.000969923
0.000978954
0.000988414
0.000998357
0.00100883
0.00101989
0.00103156
0.0010439
0.00105693
0.00107066
0.0010851
0.00110023
0.00111601
0.00113236
0.00114854
0.00116479
0.0011817
0.00119928
0.00121749
0.00123624
0.00125543
0.0012749
0.00129449
0.00131398
0.00133314
0.00135169
0.00136932
0.00138571
0.00140051
0.00141338
0.001424
0.00143204
0.00143726
0.00143946
0.0014385
0.00143434
0.00142701
0.00141665
0.00140344
0.00138765
0.00136958
0.00134957
0.00132797
0.00130513
0.00128137
0.00125704
0.00123234
0.00120769
0.00118284
0.0011578
0.00113154
0.00110421
0.00107708
0.00105063
0.00102506
0.00100042
0.000976743
0.000954002
0.000932178
0.000911241
0.000891151
0.000871869
0.000853351
0.000835557
0.000818445
0.000801977
0.000786114
0.000770819
0.00075606
0.000741804
0.000728021
0.000714683
0.000701763
0.000689237
0.000677082
0.000665276
0.0006538
0.000642637
0.000631768
0.000621179
0.000610856
0.000600786
0.000590958
0.000581359
0.000571981
0.000562815
0.000553852
0.000545086
0.000536509
0.000528115
0.000519897
0.000511851
0.000503971
0.000496252
0.000488689
0.000481276
0.000474007
0.000466878
0.000459881
0.00045301
0.000446255
0.000439608
0.000433054
0.000426577
0.000420154
0.000413751
0.000407295
0.000400275
0.000392038
0.000381069
0.00036247
1.65531e-05
0.000122602
0.000212331
0.000266596
0.000300002
0.000323977
0.000345403
0.000367598
0.000391547
0.000417239
0.000444388
0.000472713
0.000501994
0.000532061
0.000562784
0.000594055
0.00062578
0.000657877
0.000690269
0.000722884
0.000755657
0.000788523
0.000821423
0.000854301
0.000887104
0.00091978
0.000952282
0.000984566
0.00101659
0.00104831
0.0010797
0.00111071
0.00114132
0.00117151
0.00120123
0.00123047
0.0012592
0.00128741
0.00131507
0.00134218
0.00136871
0.00139466
0.00142001
0.00144477
0.00146891
0.00149245
0.00151538
0.00153769
0.00155941
0.00158052
0.00160105
0.001621
0.00164039
0.00165924
0.00167757
0.00169541
0.0017128
0.00172976
0.00174635
0.0017626
0.00177856
0.00179431
0.00180989
0.00182538
0.00184085
0.00185638
0.00187206
0.00188797
0.00190421
0.00192088
0.00193807
0.00195588
0.00197442
0.00199378
0.00201406
0.00203534
0.00205772
0.00208125
0.00210599
0.00213198
0.00215923
0.00218769
0.00221725
0.00224732
0.00227861
0.00231133
0.00234547
0.00238093
0.00241754
0.00245508
0.00249326
0.00253172
0.00257002
0.00260765
0.00264402
0.00267849
0.00271036
0.00273889
0.00276336
0.00278304
0.00279732
0.00280564
0.00280761
0.002803
0.00279174
0.00277396
0.00274997
0.00272022
0.0026853
0.0026459
0.00260273
0.00255655
0.00250811
0.00245812
0.00240734
0.00235624
0.0023056
0.00225549
0.0022055
0.00215535
0.0021052
0.00205585
0.00200779
0.00196129
0.00191645
0.00187332
0.00183188
0.00179209
0.0017539
0.00171723
0.00168202
0.00164819
0.00161567
0.00158438
0.00155426
0.00152523
0.00149723
0.0014702
0.00144408
0.00141882
0.00139436
0.00137065
0.00134767
0.00132535
0.00130366
0.00128258
0.00126206
0.00124208
0.0012226
0.00120361
0.00118508
0.00116699
0.00114932
0.00113205
0.00111517
0.00109867
0.00108252
0.00106671
0.00105125
0.0010361
0.00102127
0.00100675
0.000992513
0.000978564
0.000964889
0.000951476
0.000938315
0.000925392
0.000912694
0.000900202
0.000887898
0.000875753
0.000863733
0.000851792
0.000839859
0.000827791
0.000814961
0.000800342
0.000781775
0.00075458
1.89916e-05
0.000153417
0.000273062
0.000351607
0.000404253
0.000443649
0.000477837
0.000511193
0.000545651
0.000581822
0.000619726
0.000659184
0.000699975
0.000741897
0.000784772
0.000828445
0.000872784
0.000917666
0.000962984
0.00100864
0.00105453
0.00110058
0.00114671
0.00119284
0.0012389
0.00128482
0.00133055
0.00137602
0.00142118
0.00146598
0.00151036
0.0015543
0.00159773
0.00164063
0.00168296
0.00172468
0.00176576
0.00180618
0.0018459
0.00188491
0.00192319
0.00196071
0.00199746
0.00203342
0.00206859
0.00210295
0.0021365
0.00216923
0.00220115
0.00223226
0.00226256
0.00229206
0.00232077
0.00234871
0.00237591
0.00240238
0.00242816
0.00245329
0.00247781
0.00250176
0.0025252
0.0025482
0.00257082
0.00259313
0.00261523
0.0026372
0.00265915
0.00268117
0.00270337
0.00272588
0.00274881
0.0027723
0.00279647
0.00282145
0.00284737
0.00287435
0.00290252
0.00293198
0.00296285
0.00299521
0.00302913
0.0030647
0.00310136
0.00313957
0.00317962
0.00322161
0.0032655
0.00331117
0.00335842
0.00340699
0.00345649
0.00350647
0.00355634
0.00360543
0.00365295
0.00369799
0.00373961
0.00377678
0.00380847
0.00383369
0.00385153
0.00386123
0.00386221
0.00385415
0.00383696
0.00381083
0.00377621
0.00373374
0.00368427
0.00362875
0.00356822
0.00350373
0.00343634
0.00336703
0.00329683
0.00322672
0.00315711
0.00308829
0.00302027
0.00295308
0.00288693
0.00282225
0.00275938
0.00269856
0.00263988
0.00258339
0.00252905
0.00247683
0.00242664
0.00237842
0.00233207
0.0022875
0.00224461
0.00220331
0.00216352
0.00212514
0.0020881
0.00205231
0.0020177
0.00198421
0.00195177
0.00192031
0.00188979
0.00186014
0.00183133
0.0018033
0.00177602
0.00174944
0.00172354
0.00169827
0.00167362
0.00164955
0.00162604
0.00160306
0.0015806
0.00155864
0.00153715
0.00151613
0.00149555
0.00147541
0.00145569
0.00143637
0.00141745
0.0013989
0.00138073
0.00136291
0.00134542
0.00132826
0.00131141
0.00129483
0.00127852
0.00126243
0.00124653
0.00123077
0.00121507
0.00119929
0.00118294
0.00116488
0.00114346
0.00111606
2.11856e-05
0.000173316
0.000319859
0.000421408
0.000492582
0.000546897
0.000593314
0.000637094
0.000680957
0.000726096
0.000772889
0.00082134
0.000871302
0.00092259
0.000975015
0.0010284
0.0010826
0.00113745
0.00119284
0.00124865
0.00130477
0.0013611
0.00141755
0.00147403
0.00153047
0.00158678
0.0016429
0.00169875
0.00175429
0.00180945
0.00186416
0.00191839
0.00197208
0.00202518
0.00207766
0.00212946
0.00218056
0.00223091
0.00228048
0.00232925
0.00237718
0.00242426
0.00247044
0.00251573
0.00256008
0.00260351
0.00264597
0.00268748
0.00272802
0.00276758
0.00280616
0.00284377
0.00288041
0.00291609
0.00295082
0.00298462
0.00301752
0.00304954
0.00308071
0.00311107
0.00314068
0.00316959
0.00319785
0.00322554
0.00325273
0.00327952
0.00330599
0.00333224
0.0033584
0.00338457
0.00341089
0.00343749
0.00346452
0.00349211
0.00352041
0.00354959
0.00357978
0.00361114
0.00364381
0.00367791
0.00371357
0.0037509
0.00378968
0.00383038
0.00387322
0.00391831
0.00396564
0.00401514
0.00406665
0.00411993
0.0041746
0.00423021
0.00428614
0.00434165
0.00439585
0.00444771
0.00449608
0.00453973
0.00457736
0.00460773
0.00462962
0.00464203
0.00464415
0.00463548
0.00461584
0.00458541
0.00454468
0.00449444
0.00443569
0.00436964
0.00429751
0.00422066
0.00414032
0.00405799
0.00397472
0.0038914
0.00380867
0.00372696
0.00364653
0.00356759
0.00349035
0.0034151
0.00334207
0.00327143
0.00320325
0.00313755
0.0030743
0.00301346
0.00295494
0.00289864
0.00284447
0.00279233
0.00274211
0.00269371
0.00264702
0.00260196
0.00255843
0.00251633
0.0024756
0.00243616
0.00239792
0.00236083
0.00232481
0.00228982
0.00225579
0.00222268
0.00219044
0.00215903
0.0021284
0.00209853
0.00206937
0.0020409
0.00201309
0.00198591
0.00195934
0.00193336
0.00190795
0.00188309
0.00185876
0.00183494
0.00181162
0.00178879
0.00176642
0.00174451
0.00172304
0.00170199
0.00168135
0.0016611
0.00164122
0.00162169
0.00160248
0.00158358
0.00156494
0.00154653
0.00152827
0.00151007
0.00149162
0.00147185
0.00144976
0.0014243
2.28135e-05
0.0001865
0.000354626
0.000476414
0.00056458
0.000632846
0.000690734
0.000744149
0.000796434
0.00084929
0.000903455
0.000959158
0.00101638
0.00107499
0.00113482
0.00119571
0.0012575
0.00132004
0.00138319
0.00144682
0.00151083
0.00157511
0.00163956
0.00170408
0.0017686
0.00183303
0.0018973
0.00196134
0.00202507
0.00208843
0.00215137
0.00221382
0.00227573
0.00233704
0.00239771
0.00245768
0.00251692
0.00257538
0.00263301
0.00268979
0.00274568
0.00280064
0.00285465
0.00290767
0.00295968
0.00301066
0.00306058
0.00310943
0.00315719
0.00320384
0.00324938
0.00329379
0.00333707
0.00337922
0.00342024
0.00346014
0.00349892
0.00353659
0.00357319
0.00360873
0.00364324
0.00367677
0.00370935
0.00374104
0.00377191
0.00380202
0.00383145
0.00386028
0.00388863
0.00391659
0.00394429
0.00397186
0.00399942
0.00402714
0.00405517
0.00408367
0.00411281
0.00414277
0.00417372
0.00420584
0.00423928
0.00427418
0.00431068
0.00434919
0.00438997
0.00443319
0.00447894
0.00452726
0.00457811
0.00463133
0.00468669
0.00474381
0.00480215
0.00486102
0.00491953
0.0049766
0.00503095
0.00508118
0.00512573
0.00516304
0.00519155
0.00520987
0.00521686
0.00521172
0.00519406
0.00516391
0.00512176
0.00506844
0.0050051
0.00493317
0.00485399
0.00476946
0.00468106
0.00459024
0.00449821
0.00440597
0.00431429
0.00422375
0.00413477
0.00404765
0.00396263
0.00387993
0.00379974
0.00372216
0.00364726
0.00357504
0.00350547
0.00343847
0.00337397
0.00331187
0.00325205
0.00319442
0.00313886
0.00308526
0.00303352
0.00298353
0.0029352
0.00288844
0.00284315
0.00279926
0.00275669
0.00271538
0.00267524
0.00263622
0.00259826
0.00256132
0.00252533
0.00249026
0.00245605
0.00242268
0.00239011
0.0023583
0.00232723
0.00229686
0.00226717
0.00223814
0.00220975
0.00218197
0.00215479
0.00212818
0.00210214
0.00207664
0.00205166
0.0020272
0.00200323
0.00197974
0.00195672
0.00193413
0.00191198
0.00189024
0.00186889
0.00184791
0.00182727
0.00180695
0.00178692
0.0017671
0.00174731
0.00172675
0.00170481
0.00168128
2.40195e-05
0.000194257
0.000378679
0.000517409
0.000620513
0.000701359
0.000769697
0.000831845
0.000891603
0.000951086
0.00101136
0.0010729
0.00113582
0.00120008
0.00126558
0.00133218
0.00139972
0.00146807
0.0015371
0.00160667
0.00167668
0.00174702
0.00181758
0.00188829
0.00195904
0.00202976
0.00210037
0.0021708
0.00224096
0.0023108
0.00238025
0.00244924
0.00251772
0.00258562
0.00265289
0.00271948
0.00278533
0.00285039
0.00291462
0.00297798
0.00304041
0.00310189
0.00316236
0.00322181
0.00328018
0.00333745
0.00339358
0.00344856
0.00350234
0.00355492
0.00360625
0.00365633
0.00370514
0.00375266
0.00379887
0.00384377
0.00388735
0.00392961
0.00397055
0.00401017
0.00404849
0.00408552
0.00412129
0.00415582
0.00418916
0.00422135
0.00425245
0.00428252
0.00431164
0.00433989
0.00436738
0.00439421
0.00442052
0.00444643
0.00447211
0.0044977
0.00452341
0.0045494
0.00457588
0.00460307
0.00463119
0.00466036
0.00469103
0.00472362
0.00475845
0.00479582
0.00483596
0.00487908
0.00492531
0.00497471
0.00502724
0.00508272
0.00514082
0.00520099
0.00526246
0.00532419
0.00538487
0.00544293
0.00549656
0.00554381
0.00558266
0.0056112
0.00562777
0.00563108
0.00562035
0.00559536
0.00555647
0.00550455
0.00544078
0.00536699
0.00528496
0.0051966
0.00510363
0.00500766
0.00491004
0.00481192
0.00471422
0.00461765
0.00452273
0.00442983
0.00433925
0.00425119
0.0041658
0.00408318
0.00400337
0.00392637
0.00385214
0.00378059
0.00371165
0.00364521
0.00358117
0.00351941
0.00345981
0.00340227
0.00334667
0.00329292
0.00324091
0.00319055
0.00314175
0.00309443
0.0030485
0.0030039
0.00296055
0.0029184
0.00287737
0.00283742
0.0027985
0.00276055
0.00272355
0.00268743
0.00265218
0.00261775
0.00258411
0.00255123
0.0025191
0.00248767
0.00245694
0.00242687
0.00239744
0.00236865
0.00234046
0.00231287
0.00228585
0.00225938
0.00223346
0.00220806
0.00218317
0.00215878
0.00213486
0.0021114
0.00208839
0.00206582
0.00204367
0.00202194
0.00200061
0.00197966
0.00195898
0.00193803
0.00191641
0.00189429
2.48679e-05
0.000197623
0.000393335
0.000545536
0.000661254
0.000753055
0.00083062
0.000900478
0.000966738
0.00103184
0.00109712
0.00116328
0.00123059
0.00129912
0.00136884
0.00143964
0.00151141
0.00158402
0.00165735
0.00173128
0.00180571
0.00188053
0.00195565
0.00203097
0.00210641
0.00218188
0.00225731
0.00233262
0.00240774
0.00248259
0.00255711
0.00263122
0.00270487
0.00277798
0.00285051
0.00292238
0.00299354
0.00306393
0.00313351
0.00320221
0.00326999
0.0033368
0.00340259
0.00346732
0.00353095
0.00359343
0.00365471
0.00371477
0.00377357
0.00383106
0.00388721
0.003942
0.00399538
0.00404732
0.0040978
0.0041468
0.00419427
0.00424021
0.0042846
0.00432741
0.00436864
0.00440828
0.00444633
0.00448278
0.00451766
0.00455097
0.00458275
0.00461302
0.00464184
0.00466927
0.00469537
0.00472022
0.00474393
0.00476662
0.00478841
0.00480946
0.00482994
0.00485004
0.00486998
0.00488998
0.00491031
0.0049312
0.00495322
0.00497684
0.00500252
0.00503069
0.00506177
0.00509617
0.00513428
0.00517644
0.0052229
0.00527379
0.00532911
0.00538861
0.00545177
0.00551773
0.00558526
0.00565268
0.00571796
0.00577867
0.00583223
0.00587601
0.00590755
0.00592488
0.00592658
0.005912
0.00588124
0.00583523
0.00577545
0.00570386
0.0056225
0.00553349
0.00543882
0.00534031
0.00523954
0.00513782
0.00503623
0.00493561
0.00483658
0.00473961
0.00464501
0.00455302
0.0044638
0.00437743
0.00429395
0.00421335
0.00413557
0.00406056
0.00398821
0.00391843
0.00385111
0.00378612
0.00372336
0.00366272
0.00360408
0.00354735
0.00349241
0.00343919
0.00338757
0.00333749
0.00328886
0.00324161
0.00319567
0.00315098
0.00310746
0.00306508
0.00302378
0.0029835
0.00294421
0.00290587
0.00286843
0.00283187
0.00279615
0.00276123
0.0027271
0.00269373
0.00266109
0.00262916
0.00259792
0.00256735
0.00253743
0.00250813
0.00247946
0.00245137
0.00242387
0.00239692
0.00237053
0.00234467
0.00231933
0.0022945
0.00227018
0.00224634
0.00222301
0.00220017
0.00217785
0.00215605
0.00213473
0.00211353
0.00209216
0.00207092
2.54107e-05
0.000197448
0.000399889
0.000562122
0.000688037
0.000789047
0.00087451
0.000950982
0.00102275
0.0010925
0.00116179
0.0012315
0.00130207
0.00137368
0.00144637
0.00152009
0.00159477
0.0016703
0.00174659
0.00182352
0.00190101
0.00197894
0.00205725
0.00213583
0.0022146
0.00229348
0.0023724
0.00245128
0.00253004
0.00260861
0.00268692
0.0027649
0.00284247
0.00291958
0.00299616
0.00307214
0.00314745
0.00322204
0.00329585
0.00336881
0.00344087
0.00351198
0.00358207
0.00365109
0.003719
0.00378573
0.00385125
0.00391549
0.00397841
0.00403995
0.00410008
0.00415875
0.0042159
0.00427149
0.00432547
0.00437781
0.00442845
0.00447735
0.00452447
0.00456978
0.00461323
0.0046548
0.00469444
0.00473214
0.00476788
0.00480163
0.00483339
0.00486317
0.00489097
0.0049168
0.00494072
0.00496276
0.00498299
0.00500148
0.00501836
0.00503373
0.00504774
0.00506059
0.00507247
0.00508362
0.00509431
0.00510489
0.00511597
0.00512811
0.0051419
0.00515791
0.00517678
0.00519914
0.00522569
0.00525709
0.00529399
0.00533696
0.00538645
0.00544269
0.00550561
0.00557472
0.00564903
0.00572694
0.00580622
0.00588399
0.0059569
0.00602146
0.00607402
0.00611162
0.00613193
0.00613358
0.00611649
0.00608152
0.00603025
0.00596477
0.00588744
0.0058007
0.00570688
0.00560808
0.00550615
0.00540265
0.00529883
0.00519568
0.00509394
0.00499416
0.00489672
0.0048019
0.00470985
0.00462068
0.00453442
0.00445107
0.00437057
0.00429286
0.00421784
0.00414542
0.00407549
0.00400793
0.00394263
0.00387948
0.00381837
0.00375919
0.00370186
0.00364627
0.00359233
0.00353997
0.0034891
0.00343965
0.00339154
0.00334473
0.00329914
0.00325472
0.00321142
0.00316919
0.00312799
0.00308778
0.00304851
0.00301016
0.00297269
0.00293607
0.00290027
0.00286526
0.00283103
0.00279754
0.00276478
0.00273272
0.00270135
0.00267064
0.00264058
0.00261115
0.00258232
0.0025541
0.00252646
0.00249938
0.00247287
0.00244691
0.00242149
0.00239663
0.00237232
0.00234859
0.00232547
0.00230299
0.00228114
0.00225976
0.00223845
0.00221764
2.56901e-05
0.000194457
0.000399599
0.000568578
0.000702291
0.000810744
0.000902746
0.000984719
0.00106102
0.00113448
0.00120684
0.00127915
0.00135197
0.00142561
0.00150018
0.0015757
0.00165213
0.00172941
0.00180746
0.00188618
0.00196551
0.00204534
0.0021256
0.00220621
0.0022871
0.00236817
0.00244936
0.0025306
0.0026118
0.0026929
0.00277383
0.00285451
0.00293487
0.00301485
0.00309437
0.00317336
0.00325176
0.0033295
0.00340651
0.00348272
0.00355809
0.00363253
0.00370598
0.0037784
0.0038497
0.00391984
0.00398874
0.00405635
0.00412261
0.00418746
0.00425083
0.00431267
0.00437291
0.00443149
0.00448834
0.0045434
0.00459662
0.00464792
0.00469724
0.00474452
0.0047897
0.0048327
0.00487349
0.00491198
0.00494814
0.00498191
0.00501324
0.00504211
0.00506846
0.00509229
0.00511359
0.00513235
0.00514861
0.00516238
0.00517374
0.00518277
0.00518958
0.00519432
0.00519716
0.00519833
0.00519809
0.00519682
0.00519518
0.0051938
0.00519336
0.00519458
0.00519829
0.00520537
0.0052168
0.00523365
0.00525702
0.00528801
0.0053277
0.00537698
0.00543647
0.00550636
0.00558616
0.0056746
0.00576949
0.00586748
0.00596436
0.00605563
0.00613587
0.00620064
0.00624653
0.00627134
0.00627432
0.00625604
0.00621808
0.0061628
0.00609293
0.00601134
0.00592077
0.00582376
0.00572248
0.00561878
0.00551415
0.00540975
0.00530645
0.00520492
0.00510561
0.00500883
0.00491478
0.00482357
0.00473526
0.00464983
0.00456724
0.00448744
0.00441033
0.00433582
0.00426379
0.00419415
0.00412677
0.00406156
0.00399841
0.00393721
0.00387787
0.00382029
0.0037644
0.0037101
0.00365733
0.003606
0.00355605
0.00350742
0.00346006
0.00341389
0.00336888
0.00332498
0.00328213
0.00324031
0.00319948
0.00315959
0.00312061
0.00308252
0.00304529
0.00300888
0.00297328
0.00293846
0.0029044
0.00287107
0.00283846
0.00280654
0.0027753
0.00274472
0.00271478
0.00268546
0.00265676
0.00262866
0.00260115
0.00257423
0.00254789
0.00252216
0.00249704
0.00247255
0.00244875
0.00242568
0.00240335
0.0023817
0.00236034
0.00233966
2.574e-05
0.00018929
0.000393672
0.000566346
0.000705543
0.000819714
0.000916925
0.00100332
0.00108322
0.00115952
0.0012341
0.00130813
0.00138231
0.00145704
0.00153252
0.00160883
0.00168597
0.00176393
0.00184265
0.00192206
0.0020021
0.00208269
0.00216378
0.00224527
0.00232711
0.00240922
0.00249154
0.00257399
0.0026565
0.002739
0.00282142
0.00290369
0.00298574
0.0030675
0.00314889
0.00322985
0.0033103
0.00339018
0.00346941
0.00354792
0.00362565
0.00370251
0.00377845
0.00385339
0.00392726
0.00399999
0.00407151
0.00414175
0.00421063
0.00427809
0.00434404
0.00440842
0.00447115
0.00453215
0.00459133
0.00464862
0.00470393
0.00475719
0.0048083
0.00485717
0.00490372
0.00494785
0.00498948
0.00502852
0.00506487
0.00509845
0.00512918
0.00515697
0.00518176
0.00520346
0.00522202
0.0052374
0.00524956
0.00525848
0.00526417
0.00526665
0.00526599
0.00526227
0.00525562
0.00524622
0.00523432
0.00522024
0.00520467
0.00518828
0.00517179
0.00515604
0.00514199
0.00513074
0.00512356
0.00512188
0.00512729
0.00514151
0.00516635
0.00520359
0.00525484
0.00532131
0.00540342
0.00550066
0.00561132
0.00573179
0.00585668
0.00597996
0.00609482
0.00619483
0.00627466
0.00633062
0.00636093
0.00636567
0.0063464
0.00630577
0.006247
0.00617353
0.00608868
0.00599549
0.00589659
0.00579418
0.00569004
0.00558555
0.00548175
0.00537942
0.00527909
0.00518115
0.00508582
0.00499325
0.00490351
0.0048166
0.00473248
0.00465111
0.00457239
0.00449625
0.00442256
0.00435125
0.00428219
0.00421528
0.00415043
0.00408753
0.0040265
0.00396725
0.00390969
0.00385374
0.00379932
0.00374638
0.00369484
0.00364464
0.00359573
0.00354804
0.00350154
0.00345617
0.0034119
0.00336867
0.00332646
0.00328523
0.00324494
0.00320557
0.00316708
0.00312946
0.00309266
0.00305668
0.00302148
0.00298705
0.00295336
0.0029204
0.00288813
0.00285655
0.00282564
0.00279539
0.00276577
0.00273678
0.00270842
0.00268067
0.00265355
0.00262707
0.00260124
0.00257611
0.00255171
0.0025281
0.00250531
0.00248332
0.00246182
0.00244104
2.55875e-05
0.000182508
0.000383234
0.000556838
0.000699339
0.000817581
0.000918742
0.00100855
0.00109118
0.00116953
0.00124556
0.00132054
0.00139528
0.00147026
0.00154577
0.00162195
0.00169886
0.00177651
0.00185487
0.00193393
0.00201362
0.00209389
0.00217469
0.00225596
0.00233764
0.00241967
0.00250198
0.00258451
0.0026672
0.00274998
0.00283279
0.00291555
0.0029982
0.00308066
0.00316287
0.00324476
0.00332625
0.00340726
0.00348773
0.00356758
0.00364674
0.00372513
0.00380267
0.00387928
0.0039549
0.00402944
0.00410282
0.00417496
0.00424577
0.00431518
0.00438309
0.00444943
0.00451409
0.00457698
0.00463802
0.00469709
0.0047541
0.00480894
0.00486151
0.00491169
0.00495937
0.00500443
0.00504676